<?xml version="1.0" encoding="UTF-8"?>

<!-- generated on 2023-12-01 20:14:13 by Eclipse SUMO GUI Version 1.18.0
<configuration xmlns:xsi="http://www.w3.org/2001/XMLSchema-instance" xsi:noNamespaceSchemaLocation="http://sumo.dlr.de/xsd/sumoConfiguration.xsd">

    <input>
        <net-file value="/home/wmn/TransSimHub/examples/utils/parse_trip_info/../../sumo_env/single_junction/env/single_junction.net.xml"/>
        <route-files value="/home/wmn/TransSimHub/examples/utils/parse_trip_info/../../sumo_env/single_junction/env/straight.rou.xml"/>
        <additional-files value="/home/wmn/TransSimHub/examples/utils/parse_trip_info/../../sumo_env/single_junction/env/../detectors/e1_internal.add.xml,/home/wmn/TransSimHub/examples/utils/parse_trip_info/../../sumo_env/single_junction/env/ ../detectors/e2.add.xml,/home/wmn/TransSimHub/examples/utils/parse_trip_info/../../sumo_env/single_junction/env/ ../add/tls.add.xml"/>
    </input>

    <output>
        <tripinfo-output value="/home/wmn/TransSimHub/examples/utils/parse_trip_info/./single_junction.tripinfo.xml"/>
    </output>

    <processing>
        <time-to-teleport value="-1"/>
        <waiting-time-memory value="10000"/>
        <max-depart-delay value="100000"/>
    </processing>

    <report>
        <no-warnings value="true"/>
        <no-step-log value="true"/>
    </report>

    <traci_server>
        <remote-port value="57547"/>
    </traci_server>

    <random_number>
        <random value="true"/>
    </random_number>

    <gui_only>
        <quit-on-end value="true"/>
        <start value="true"/>
    </gui_only>

</configuration>
-->

<tripinfos xmlns:xsi="http://www.w3.org/2001/XMLSchema-instance" xsi:noNamespaceSchemaLocation="http://sumo.dlr.de/xsd/tripinfo_file.xsd">
    <tripinfo id="gsndj_s4__0.0" depart="10.00" departLane="gsndj_s4_3" departPos="5.10" departSpeed="0.00" departDelay="0.78" arrival="121.00" arrivalLane="gsndj_s5_0" arrivalPos="701.75" arrivalSpeed="30.46" duration="111.00" routeLength="1432.04" waitingTime="46.00" waitingCount="1" stopTime="0.00" timeLoss="63.31" rerouteNo="0" devices="tripinfo_gsndj_s4__0.0" vType="car_2" speedFactor="1.10" vaporized=""/>
    <tripinfo id="gsndj_s4__0.1" depart="10.00" departLane="gsndj_s4_1" departPos="5.10" departSpeed="0.00" departDelay="0.71" arrival="122.00" arrivalLane="gsndj_s5_0" arrivalPos="701.75" arrivalSpeed="27.78" duration="112.00" routeLength="1432.04" waitingTime="43.00" waitingCount="1" stopTime="0.00" timeLoss="61.78" rerouteNo="0" devices="tripinfo_gsndj_s4__0.1" vType="car_2" speedFactor="1.04" vaporized=""/>
    <tripinfo id="gsndj_n7__0.0" depart="10.00" departLane="gsndj_n7_3" departPos="7.10" departSpeed="0.00" departDelay="0.63" arrival="124.00" arrivalLane="gsndj_n6_1" arrivalPos="716.25" arrivalSpeed="26.20" duration="114.00" routeLength="1444.00" waitingTime="44.00" waitingCount="1" stopTime="0.00" timeLoss="66.16" rerouteNo="0" devices="tripinfo_gsndj_n7__0.0" vType="car_1" speedFactor="1.09" vaporized=""/>
    <tripinfo id="gsndj_n7__0.1" depart="11.00" departLane="gsndj_n7_2" departPos="7.10" departSpeed="0.00" departDelay="0.80" arrival="124.00" arrivalLane="gsndj_n6_2" arrivalPos="716.25" arrivalSpeed="26.93" duration="113.00" routeLength="1444.00" waitingTime="42.00" waitingCount="1" stopTime="0.00" timeLoss="58.89" rerouteNo="0" devices="tripinfo_gsndj_n7__0.1" vType="car_1" speedFactor="0.98" vaporized=""/>
    <tripinfo id="gsndj_s4__0.3" depart="17.00" departLane="gsndj_s4_1" departPos="5.10" departSpeed="0.00" departDelay="0.76" arrival="124.00" arrivalLane="gsndj_s5_0" arrivalPos="701.75" arrivalSpeed="26.81" duration="107.00" routeLength="1432.04" waitingTime="35.00" waitingCount="2" stopTime="0.00" timeLoss="55.54" rerouteNo="0" devices="tripinfo_gsndj_s4__0.3" vType="car_2" speedFactor="1.01" vaporized=""/>
    <tripinfo id="gsndj_n7__0.3" depart="18.00" departLane="gsndj_n7_0" departPos="7.10" departSpeed="0.00" departDelay="0.10" arrival="126.00" arrivalLane="gsndj_n6_2" arrivalPos="716.25" arrivalSpeed="26.13" duration="108.00" routeLength="1444.00" waitingTime="36.00" waitingCount="1" stopTime="0.00" timeLoss="52.83" rerouteNo="0" devices="tripinfo_gsndj_n7__0.3" vType="car_1" speedFactor="0.95" vaporized=""/>
    <tripinfo id="gsndj_s4__0.2" depart="13.00" departLane="gsndj_s4_2" departPos="5.10" departSpeed="0.00" departDelay="2.26" arrival="127.00" arrivalLane="gsndj_s5_1" arrivalPos="701.75" arrivalSpeed="24.66" duration="114.00" routeLength="1432.04" waitingTime="40.00" waitingCount="1" stopTime="0.00" timeLoss="57.11" rerouteNo="0" devices="tripinfo_gsndj_s4__0.2" vType="car_2" speedFactor="0.92" vaporized=""/>
    <tripinfo id="gsndj_s4__0.4" depart="29.00" departLane="gsndj_s4_3" departPos="5.10" departSpeed="0.00" departDelay="0.29" arrival="127.00" arrivalLane="gsndj_s5_2" arrivalPos="701.75" arrivalSpeed="27.35" duration="98.00" routeLength="1432.04" waitingTime="26.00" waitingCount="1" stopTime="0.00" timeLoss="45.44" rerouteNo="0" devices="tripinfo_gsndj_s4__0.4" vType="car_2" speedFactor="0.99" vaporized=""/>
    <tripinfo id="gsndj_n7__0.4" depart="29.00" departLane="gsndj_n7_0" departPos="7.10" departSpeed="0.00" departDelay="0.98" arrival="128.00" arrivalLane="gsndj_n6_2" arrivalPos="716.25" arrivalSpeed="26.35" duration="99.00" routeLength="1444.00" waitingTime="27.00" waitingCount="1" stopTime="0.00" timeLoss="44.23" rerouteNo="0" devices="tripinfo_gsndj_n7__0.4" vType="car_1" speedFactor="0.96" vaporized=""/>
    <tripinfo id="gsndj_s4__0.5" depart="32.00" departLane="gsndj_s4_2" departPos="5.10" departSpeed="0.00" departDelay="0.79" arrival="128.00" arrivalLane="gsndj_s5_0" arrivalPos="701.75" arrivalSpeed="25.88" duration="96.00" routeLength="1432.04" waitingTime="18.00" waitingCount="1" stopTime="0.00" timeLoss="47.12" rerouteNo="0" devices="tripinfo_gsndj_s4__0.5" vType="car_2" speedFactor="1.07" vaporized=""/>
    <tripinfo id="gsndj_s4__0.6" depart="39.00" departLane="gsndj_s4_3" departPos="5.10" departSpeed="0.00" departDelay="0.58" arrival="128.00" arrivalLane="gsndj_s5_2" arrivalPos="701.75" arrivalSpeed="28.37" duration="89.00" routeLength="1432.04" waitingTime="20.00" waitingCount="1" stopTime="0.00" timeLoss="40.50" rerouteNo="0" devices="tripinfo_gsndj_s4__0.6" vType="car_2" speedFactor="1.07" vaporized=""/>
    <tripinfo id="gsndj_n7__0.7" depart="42.00" departLane="gsndj_n7_2" departPos="7.10" departSpeed="0.00" departDelay="1.94" arrival="129.00" arrivalLane="gsndj_n6_2" arrivalPos="716.25" arrivalSpeed="25.81" duration="87.00" routeLength="1444.00" waitingTime="16.00" waitingCount="1" stopTime="0.00" timeLoss="33.39" rerouteNo="0" devices="tripinfo_gsndj_n7__0.7" vType="car_1" speedFactor="0.97" vaporized=""/>
    <tripinfo id="gsndj_s4__0.7" depart="43.00" departLane="gsndj_s4_0" departPos="5.10" departSpeed="0.00" departDelay="0.00" arrival="129.00" arrivalLane="gsndj_s5_1" arrivalPos="701.75" arrivalSpeed="26.25" duration="86.00" routeLength="1432.04" waitingTime="10.00" waitingCount="1" stopTime="0.00" timeLoss="31.90" rerouteNo="0" devices="tripinfo_gsndj_s4__0.7" vType="car_2" speedFactor="0.97" vaporized=""/>
    <tripinfo id="gsndj_n7__0.2" depart="18.00" departLane="gsndj_n7_1" departPos="7.10" departSpeed="0.00" departDelay="0.33" arrival="130.00" arrivalLane="gsndj_n6_0" arrivalPos="716.25" arrivalSpeed="23.02" duration="112.00" routeLength="1444.00" waitingTime="30.00" waitingCount="1" stopTime="0.00" timeLoss="48.75" rerouteNo="0" devices="tripinfo_gsndj_n7__0.2" vType="car_1" speedFactor="0.83" vaporized=""/>
    <tripinfo id="gsndj_n7__0.5" depart="30.00" departLane="gsndj_n7_2" departPos="7.10" departSpeed="0.00" departDelay="0.80" arrival="130.00" arrivalLane="gsndj_n6_1" arrivalPos="716.25" arrivalSpeed="25.99" duration="100.00" routeLength="1444.00" waitingTime="25.00" waitingCount="1" stopTime="0.00" timeLoss="45.28" rerouteNo="0" devices="tripinfo_gsndj_n7__0.5" vType="car_1" speedFactor="0.96" vaporized=""/>
    <tripinfo id="gsndj_s4__0.9" depart="49.00" departLane="gsndj_s4_1" departPos="5.10" departSpeed="0.00" departDelay="0.45" arrival="130.00" arrivalLane="gsndj_s5_1" arrivalPos="701.75" arrivalSpeed="28.30" duration="81.00" routeLength="1432.04" waitingTime="8.00" waitingCount="1" stopTime="0.00" timeLoss="30.08" rerouteNo="0" devices="tripinfo_gsndj_s4__0.9" vType="car_2" speedFactor="1.02" vaporized=""/>
    <tripinfo id="gsndj_s4__0.10" depart="56.00" departLane="gsndj_s4_3" departPos="5.10" departSpeed="0.00" departDelay="0.45" arrival="130.00" arrivalLane="gsndj_s5_2" arrivalPos="701.75" arrivalSpeed="30.51" duration="74.00" routeLength="1432.04" waitingTime="4.00" waitingCount="1" stopTime="0.00" timeLoss="28.02" rerouteNo="0" devices="tripinfo_gsndj_s4__0.10" vType="car_2" speedFactor="1.14" vaporized=""/>
    <tripinfo id="gsndj_n7__0.8" depart="43.00" departLane="gsndj_n7_1" departPos="7.10" departSpeed="0.00" departDelay="2.94" arrival="131.00" arrivalLane="gsndj_n6_2" arrivalPos="716.25" arrivalSpeed="29.62" duration="88.00" routeLength="1444.00" waitingTime="13.00" waitingCount="1" stopTime="0.00" timeLoss="40.39" rerouteNo="0" devices="tripinfo_gsndj_n7__0.8" vType="car_1" speedFactor="1.11" vaporized=""/>
    <tripinfo id="gsndj_s4__1.1" depart="62.00" departLane="gsndj_s4_1" departPos="5.10" departSpeed="0.00" departDelay="0.17" arrival="131.00" arrivalLane="gsndj_s5_2" arrivalPos="701.75" arrivalSpeed="30.75" duration="69.00" routeLength="1432.04" waitingTime="1.00" waitingCount="1" stopTime="0.00" timeLoss="22.04" rerouteNo="0" devices="tripinfo_gsndj_s4__1.1" vType="car_2" speedFactor="1.11" vaporized=""/>
    <tripinfo id="gsndj_n7__0.10" depart="51.00" departLane="gsndj_n7_0" departPos="7.10" departSpeed="0.00" departDelay="0.50" arrival="132.00" arrivalLane="gsndj_n6_2" arrivalPos="716.25" arrivalSpeed="28.73" duration="81.00" routeLength="1444.00" waitingTime="8.00" waitingCount="1" stopTime="0.00" timeLoss="31.19" rerouteNo="0" devices="tripinfo_gsndj_n7__0.10" vType="car_1" speedFactor="1.05" vaporized=""/>
    <tripinfo id="gsndj_n7__1.0" depart="63.00" departLane="gsndj_n7_3" departPos="5.10" departSpeed="0.00" departDelay="0.90" arrival="134.00" arrivalLane="gsndj_n6_1" arrivalPos="716.25" arrivalSpeed="27.11" duration="71.00" routeLength="1446.00" waitingTime="0.00" waitingCount="0" stopTime="0.00" timeLoss="18.81" rerouteNo="0" devices="tripinfo_gsndj_n7__1.0" vType="car_2" speedFactor="1.01" vaporized=""/>
    <tripinfo id="gsndj_n7__0.6" depart="38.00" departLane="gsndj_n7_2" departPos="7.10" departSpeed="0.00" departDelay="0.40" arrival="135.00" arrivalLane="gsndj_n6_0" arrivalPos="716.25" arrivalSpeed="21.37" duration="97.00" routeLength="1444.00" waitingTime="15.00" waitingCount="1" stopTime="0.00" timeLoss="32.05" rerouteNo="0" devices="tripinfo_gsndj_n7__0.6" vType="car_1" speedFactor="0.81" vaporized=""/>
    <tripinfo id="gsndj_n7__0.9" depart="43.00" departLane="gsndj_n7_0" departPos="7.10" departSpeed="0.00" departDelay="0.09" arrival="135.00" arrivalLane="gsndj_n6_1" arrivalPos="716.25" arrivalSpeed="25.20" duration="92.00" routeLength="1444.00" waitingTime="13.00" waitingCount="1" stopTime="0.00" timeLoss="35.94" rerouteNo="0" devices="tripinfo_gsndj_n7__0.9" vType="car_1" speedFactor="0.94" vaporized=""/>
    <tripinfo id="gsndj_s4__1.2" depart="67.00" departLane="gsndj_s4_3" departPos="5.10" departSpeed="0.00" departDelay="0.10" arrival="135.00" arrivalLane="gsndj_s5_2" arrivalPos="701.75" arrivalSpeed="26.63" duration="68.00" routeLength="1432.04" waitingTime="0.00" waitingCount="0" stopTime="0.00" timeLoss="14.85" rerouteNo="0" devices="tripinfo_gsndj_s4__1.2" vType="car_2" speedFactor="0.98" vaporized=""/>
    <tripinfo id="gsndj_n7__1.1" depart="68.00" departLane="gsndj_n7_3" departPos="5.10" departSpeed="0.00" departDelay="0.71" arrival="135.00" arrivalLane="gsndj_n6_2" arrivalPos="716.25" arrivalSpeed="30.38" duration="67.00" routeLength="1446.00" waitingTime="0.00" waitingCount="0" stopTime="0.00" timeLoss="19.46" rerouteNo="0" devices="tripinfo_gsndj_n7__1.1" vType="car_2" speedFactor="1.11" vaporized=""/>
    <tripinfo id="gsndj_s4__0.8" depart="48.00" departLane="gsndj_s4_3" departPos="5.10" departSpeed="0.00" departDelay="0.52" arrival="136.00" arrivalLane="gsndj_s5_0" arrivalPos="701.75" arrivalSpeed="20.84" duration="88.00" routeLength="1432.04" waitingTime="5.00" waitingCount="1" stopTime="0.00" timeLoss="21.03" rerouteNo="0" devices="tripinfo_gsndj_s4__0.8" vType="car_2" speedFactor="0.77" vaporized=""/>
    <tripinfo id="gsndj_s4__1.5" depart="77.00" departLane="gsndj_s4_1" departPos="5.10" departSpeed="0.00" departDelay="0.21" arrival="136.00" arrivalLane="gsndj_s5_2" arrivalPos="701.75" arrivalSpeed="29.32" duration="59.00" routeLength="1432.04" waitingTime="0.00" waitingCount="0" stopTime="0.00" timeLoss="11.23" rerouteNo="0" devices="tripinfo_gsndj_s4__1.5" vType="car_2" speedFactor="1.08" vaporized=""/>
    <tripinfo id="gsndj_s4__1.0" depart="62.00" departLane="gsndj_s4_2" departPos="5.10" departSpeed="0.00" departDelay="0.63" arrival="137.00" arrivalLane="gsndj_s5_1" arrivalPos="701.75" arrivalSpeed="23.13" duration="75.00" routeLength="1432.04" waitingTime="0.00" waitingCount="0" stopTime="0.00" timeLoss="14.56" rerouteNo="0" devices="tripinfo_gsndj_s4__1.0" vType="car_2" speedFactor="0.86" vaporized=""/>
    <tripinfo id="gsndj_n7__1.2" depart="72.00" departLane="gsndj_n7_3" departPos="5.10" departSpeed="0.00" departDelay="0.68" arrival="137.00" arrivalLane="gsndj_n6_2" arrivalPos="716.25" arrivalSpeed="27.62" duration="65.00" routeLength="1446.00" waitingTime="0.00" waitingCount="0" stopTime="0.00" timeLoss="12.97" rerouteNo="0" devices="tripinfo_gsndj_n7__1.2" vType="car_2" speedFactor="1.01" vaporized=""/>
    <tripinfo id="gsndj_s4__1.3" depart="70.00" departLane="gsndj_s4_0" departPos="5.10" departSpeed="0.00" departDelay="1.72" arrival="138.00" arrivalLane="gsndj_s5_1" arrivalPos="701.75" arrivalSpeed="25.19" duration="68.00" routeLength="1432.04" waitingTime="0.00" waitingCount="0" stopTime="0.00" timeLoss="13.97" rerouteNo="0" devices="tripinfo_gsndj_s4__1.3" vType="car_2" speedFactor="0.96" vaporized=""/>
    <tripinfo id="gsndj_s4__1.4" depart="70.00" departLane="gsndj_s4_1" departPos="5.10" departSpeed="0.00" departDelay="1.71" arrival="138.00" arrivalLane="gsndj_s5_2" arrivalPos="701.75" arrivalSpeed="27.82" duration="68.00" routeLength="1432.04" waitingTime="0.00" waitingCount="0" stopTime="0.00" timeLoss="16.02" rerouteNo="0" devices="tripinfo_gsndj_s4__1.4" vType="car_2" speedFactor="1.01" vaporized=""/>
    <tripinfo id="gsndj_n7__1.3" depart="73.00" departLane="gsndj_n7_2" departPos="5.10" departSpeed="0.00" departDelay="0.70" arrival="138.00" arrivalLane="gsndj_n6_1" arrivalPos="716.25" arrivalSpeed="25.51" duration="65.00" routeLength="1446.00" waitingTime="0.00" waitingCount="0" stopTime="0.00" timeLoss="9.95" rerouteNo="0" devices="tripinfo_gsndj_n7__1.3" vType="car_2" speedFactor="0.95" vaporized=""/>
    <tripinfo id="gsndj_n7__1.5" depart="76.00" departLane="gsndj_n7_1" departPos="5.10" departSpeed="0.00" departDelay="0.19" arrival="140.00" arrivalLane="gsndj_n6_2" arrivalPos="716.25" arrivalSpeed="27.51" duration="64.00" routeLength="1446.00" waitingTime="0.00" waitingCount="0" stopTime="0.00" timeLoss="12.62" rerouteNo="0" devices="tripinfo_gsndj_n7__1.5" vType="car_2" speedFactor="1.02" vaporized=""/>
    <tripinfo id="gsndj_s4__1.6" depart="78.00" departLane="gsndj_s4_0" departPos="5.10" departSpeed="0.00" departDelay="0.96" arrival="140.00" arrivalLane="gsndj_s5_2" arrivalPos="701.75" arrivalSpeed="26.93" duration="62.00" routeLength="1432.04" waitingTime="0.00" waitingCount="0" stopTime="0.00" timeLoss="8.51" rerouteNo="0" devices="tripinfo_gsndj_s4__1.6" vType="car_2" speedFactor="0.97" vaporized=""/>
    <tripinfo id="gsndj_n7__1.6" depart="78.00" departLane="gsndj_n7_2" departPos="5.10" departSpeed="0.00" departDelay="1.95" arrival="142.00" arrivalLane="gsndj_n6_2" arrivalPos="716.25" arrivalSpeed="28.10" duration="64.00" routeLength="1446.00" waitingTime="0.00" waitingCount="0" stopTime="0.00" timeLoss="12.34" rerouteNo="0" devices="tripinfo_gsndj_n7__1.6" vType="car_2" speedFactor="1.03" vaporized=""/>
    <tripinfo id="gsndj_n7__1.7" depart="85.00" departLane="gsndj_n7_1" departPos="5.10" departSpeed="0.00" departDelay="0.58" arrival="143.00" arrivalLane="gsndj_n6_2" arrivalPos="716.25" arrivalSpeed="28.54" duration="58.00" routeLength="1446.00" waitingTime="0.00" waitingCount="0" stopTime="0.00" timeLoss="7.88" rerouteNo="0" devices="tripinfo_gsndj_n7__1.7" vType="car_2" speedFactor="1.04" vaporized=""/>
    <tripinfo id="gsndj_n7__1.8" depart="86.00" departLane="gsndj_n7_3" departPos="5.10" departSpeed="0.00" departDelay="0.45" arrival="147.00" arrivalLane="gsndj_n6_2" arrivalPos="716.25" arrivalSpeed="26.11" duration="61.00" routeLength="1446.00" waitingTime="0.00" waitingCount="0" stopTime="0.00" timeLoss="7.18" rerouteNo="0" devices="tripinfo_gsndj_n7__1.8" vType="car_2" speedFactor="0.98" vaporized=""/>
    <tripinfo id="gsndj_n7__1.4" depart="75.00" departLane="gsndj_n7_3" departPos="5.10" departSpeed="0.00" departDelay="1.00" arrival="151.00" arrivalLane="gsndj_n6_0" arrivalPos="716.25" arrivalSpeed="20.95" duration="76.00" routeLength="1446.00" waitingTime="0.00" waitingCount="0" stopTime="0.00" timeLoss="7.03" rerouteNo="0" devices="tripinfo_gsndj_n7__1.4" vType="car_2" speedFactor="0.76" vaporized=""/>
    <tripinfo id="gsndj_n7__1.9" depart="89.00" departLane="gsndj_n7_3" departPos="5.10" departSpeed="0.00" departDelay="0.25" arrival="212.00" arrivalLane="gsndj_n6_1" arrivalPos="716.25" arrivalSpeed="29.73" duration="123.00" routeLength="1446.00" waitingTime="54.00" waitingCount="1" stopTime="0.00" timeLoss="74.63" rerouteNo="0" devices="tripinfo_gsndj_n7__1.9" vType="car_2" speedFactor="1.09" vaporized=""/>
    <tripinfo id="gsndj_s4__1.8" depart="92.00" departLane="gsndj_s4_2" departPos="5.10" departSpeed="0.00" departDelay="0.45" arrival="212.00" arrivalLane="gsndj_s5_0" arrivalPos="701.75" arrivalSpeed="29.55" duration="120.00" routeLength="1432.04" waitingTime="51.00" waitingCount="1" stopTime="0.00" timeLoss="72.35" rerouteNo="0" devices="tripinfo_gsndj_s4__1.8" vType="car_2" speedFactor="1.10" vaporized=""/>
    <tripinfo id="gsndj_s4__1.10" depart="98.00" departLane="gsndj_s4_2" departPos="5.10" departSpeed="0.00" departDelay="1.30" arrival="216.00" arrivalLane="gsndj_s5_2" arrivalPos="701.75" arrivalSpeed="26.70" duration="118.00" routeLength="1432.04" waitingTime="46.00" waitingCount="1" stopTime="0.00" timeLoss="65.64" rerouteNo="0" devices="tripinfo_gsndj_s4__1.10" vType="car_2" speedFactor="0.99" vaporized=""/>
    <tripinfo id="gsndj_n7__1.10" depart="93.00" departLane="gsndj_n7_1" departPos="5.10" departSpeed="0.00" departDelay="0.71" arrival="218.00" arrivalLane="gsndj_n6_0" arrivalPos="716.25" arrivalSpeed="23.02" duration="125.00" routeLength="1446.00" waitingTime="47.00" waitingCount="1" stopTime="0.00" timeLoss="63.83" rerouteNo="0" devices="tripinfo_gsndj_n7__1.10" vType="car_2" speedFactor="0.86" vaporized=""/>
    <tripinfo id="gsndj_n7__1.11" depart="94.00" departLane="gsndj_n7_3" departPos="5.10" departSpeed="0.00" departDelay="0.66" arrival="218.00" arrivalLane="gsndj_n6_2" arrivalPos="716.25" arrivalSpeed="24.59" duration="124.00" routeLength="1446.00" waitingTime="48.00" waitingCount="1" stopTime="0.00" timeLoss="65.47" rerouteNo="0" devices="tripinfo_gsndj_n7__1.11" vType="car_2" speedFactor="0.90" vaporized=""/>
    <tripinfo id="gsndj_s4__1.12" depart="106.00" departLane="gsndj_s4_3" departPos="5.10" departSpeed="0.00" departDelay="0.87" arrival="218.00" arrivalLane="gsndj_s5_2" arrivalPos="701.75" arrivalSpeed="26.62" duration="112.00" routeLength="1432.04" waitingTime="40.00" waitingCount="1" stopTime="0.00" timeLoss="59.83" rerouteNo="0" devices="tripinfo_gsndj_s4__1.12" vType="car_2" speedFactor="1.00" vaporized=""/>
    <tripinfo id="gsndj_n7__1.12" depart="97.00" departLane="gsndj_n7_3" departPos="5.10" departSpeed="0.00" departDelay="0.82" arrival="219.00" arrivalLane="gsndj_n6_1" arrivalPos="716.25" arrivalSpeed="25.64" duration="122.00" routeLength="1446.00" waitingTime="42.00" waitingCount="2" stopTime="0.00" timeLoss="71.69" rerouteNo="0" devices="tripinfo_gsndj_n7__1.12" vType="car_2" speedFactor="1.04" vaporized=""/>
    <tripinfo id="gsndj_n7__1.13" depart="110.00" departLane="gsndj_n7_2" departPos="5.10" departSpeed="0.00" departDelay="0.61" arrival="220.00" arrivalLane="gsndj_n6_2" arrivalPos="716.25" arrivalSpeed="27.15" duration="110.00" routeLength="1446.00" waitingTime="37.00" waitingCount="1" stopTime="0.00" timeLoss="57.51" rerouteNo="0" devices="tripinfo_gsndj_n7__1.13" vType="car_2" speedFactor="1.01" vaporized=""/>
    <tripinfo id="gsndj_s4__1.7" depart="89.00" departLane="gsndj_s4_2" departPos="5.10" departSpeed="0.00" departDelay="0.82" arrival="221.00" arrivalLane="gsndj_s5_0" arrivalPos="701.75" arrivalSpeed="20.40" duration="132.00" routeLength="1432.04" waitingTime="47.00" waitingCount="1" stopTime="0.00" timeLoss="63.13" rerouteNo="0" devices="tripinfo_gsndj_s4__1.7" vType="car_2" speedFactor="0.75" vaporized=""/>
    <tripinfo id="gsndj_s4__1.14" depart="111.00" departLane="gsndj_s4_3" departPos="5.10" departSpeed="0.00" departDelay="0.44" arrival="221.00" arrivalLane="gsndj_s5_2" arrivalPos="701.75" arrivalSpeed="24.93" duration="110.00" routeLength="1432.04" waitingTime="35.00" waitingCount="1" stopTime="0.00" timeLoss="53.00" rerouteNo="0" devices="tripinfo_gsndj_s4__1.14" vType="car_2" speedFactor="0.92" vaporized=""/>
    <tripinfo id="gsndj_n7__1.15" depart="114.00" departLane="gsndj_n7_2" departPos="5.10" departSpeed="0.00" departDelay="0.40" arrival="221.00" arrivalLane="gsndj_n6_1" arrivalPos="716.25" arrivalSpeed="25.41" duration="107.00" routeLength="1446.00" waitingTime="30.00" waitingCount="1" stopTime="0.00" timeLoss="50.74" rerouteNo="0" devices="tripinfo_gsndj_n7__1.15" vType="car_2" speedFactor="0.94" vaporized=""/>
    <tripinfo id="gsndj_n7__2.0" depart="122.00" departLane="gsndj_n7_1" departPos="7.10" departSpeed="0.00" departDelay="0.84" arrival="221.00" arrivalLane="gsndj_n6_2" arrivalPos="716.25" arrivalSpeed="26.91" duration="99.00" routeLength="1444.00" waitingTime="22.00" waitingCount="2" stopTime="0.00" timeLoss="51.10" rerouteNo="0" devices="tripinfo_gsndj_n7__2.0" vType="car_1" speedFactor="1.10" vaporized=""/>
    <tripinfo id="gsndj_s4__1.9" depart="96.00" departLane="gsndj_s4_0" departPos="5.10" departSpeed="0.00" departDelay="0.53" arrival="222.00" arrivalLane="gsndj_s5_1" arrivalPos="701.75" arrivalSpeed="22.78" duration="126.00" routeLength="1432.04" waitingTime="41.00" waitingCount="1" stopTime="0.00" timeLoss="62.76" rerouteNo="0" devices="tripinfo_gsndj_s4__1.9" vType="car_2" speedFactor="0.83" vaporized=""/>
    <tripinfo id="gsndj_n7__1.14" depart="112.00" departLane="gsndj_n7_3" departPos="5.10" departSpeed="0.00" departDelay="0.40" arrival="222.00" arrivalLane="gsndj_n6_1" arrivalPos="716.25" arrivalSpeed="26.72" duration="110.00" routeLength="1446.00" waitingTime="34.00" waitingCount="1" stopTime="0.00" timeLoss="59.04" rerouteNo="0" devices="tripinfo_gsndj_n7__1.14" vType="car_2" speedFactor="1.03" vaporized=""/>
    <tripinfo id="gsndj_n7__2.3" depart="128.00" departLane="gsndj_n7_2" departPos="7.10" departSpeed="0.00" departDelay="0.94" arrival="222.00" arrivalLane="gsndj_n6_2" arrivalPos="716.25" arrivalSpeed="26.85" duration="94.00" routeLength="1444.00" waitingTime="21.00" waitingCount="1" stopTime="0.00" timeLoss="47.99" rerouteNo="0" devices="tripinfo_gsndj_n7__2.3" vType="car_1" speedFactor="1.13" vaporized=""/>
    <tripinfo id="gsndj_s4__2.2" depart="131.00" departLane="gsndj_s4_2" departPos="7.10" departSpeed="0.00" departDelay="0.97" arrival="222.00" arrivalLane="gsndj_s5_2" arrivalPos="701.75" arrivalSpeed="27.66" duration="91.00" routeLength="1430.04" waitingTime="19.00" waitingCount="1" stopTime="0.00" timeLoss="47.73" rerouteNo="0" devices="tripinfo_gsndj_s4__2.2" vType="car_1" speedFactor="1.19" vaporized=""/>
    <tripinfo id="gsndj_s4__1.11" depart="101.00" departLane="gsndj_s4_2" departPos="5.10" departSpeed="0.00" departDelay="0.74" arrival="224.00" arrivalLane="gsndj_s5_0" arrivalPos="701.75" arrivalSpeed="20.14" duration="123.00" routeLength="1432.04" waitingTime="38.00" waitingCount="1" stopTime="0.00" timeLoss="54.10" rerouteNo="0" devices="tripinfo_gsndj_s4__1.11" vType="car_2" speedFactor="0.75" vaporized=""/>
    <tripinfo id="gsndj_s4__1.15" depart="120.00" departLane="gsndj_s4_2" departPos="5.10" departSpeed="0.00" departDelay="0.20" arrival="224.00" arrivalLane="gsndj_s5_1" arrivalPos="701.75" arrivalSpeed="23.65" duration="104.00" routeLength="1432.04" waitingTime="24.00" waitingCount="1" stopTime="0.00" timeLoss="43.60" rerouteNo="0" devices="tripinfo_gsndj_s4__1.15" vType="car_2" speedFactor="0.86" vaporized=""/>
    <tripinfo id="gsndj_n7__2.4" depart="130.00" departLane="gsndj_n7_0" departPos="7.10" departSpeed="0.00" departDelay="2.44" arrival="224.00" arrivalLane="gsndj_n6_2" arrivalPos="716.25" arrivalSpeed="26.72" duration="94.00" routeLength="1444.00" waitingTime="19.00" waitingCount="1" stopTime="0.00" timeLoss="41.06" rerouteNo="0" devices="tripinfo_gsndj_n7__2.4" vType="car_1" speedFactor="0.99" vaporized=""/>
    <tripinfo id="gsndj_s4__2.4" depart="137.00" departLane="gsndj_s4_3" departPos="7.10" departSpeed="0.00" departDelay="0.78" arrival="224.00" arrivalLane="gsndj_s5_2" arrivalPos="701.75" arrivalSpeed="29.42" duration="87.00" routeLength="1430.04" waitingTime="11.00" waitingCount="1" stopTime="0.00" timeLoss="38.32" rerouteNo="0" devices="tripinfo_gsndj_s4__2.4" vType="car_1" speedFactor="1.07" vaporized=""/>
    <tripinfo id="gsndj_n7__2.1" depart="123.00" departLane="gsndj_n7_0" departPos="7.10" departSpeed="0.00" departDelay="1.32" arrival="225.00" arrivalLane="gsndj_n6_0" arrivalPos="716.25" arrivalSpeed="23.70" duration="102.00" routeLength="1444.00" waitingTime="21.00" waitingCount="1" stopTime="0.00" timeLoss="41.00" rerouteNo="0" devices="tripinfo_gsndj_n7__2.1" vType="car_1" speedFactor="0.86" vaporized=""/>
    <tripinfo id="gsndj_s4__2.0" depart="128.00" departLane="gsndj_s4_1" departPos="7.10" departSpeed="0.00" departDelay="0.65" arrival="225.00" arrivalLane="gsndj_s5_1" arrivalPos="701.75" arrivalSpeed="25.41" duration="97.00" routeLength="1430.04" waitingTime="22.00" waitingCount="1" stopTime="0.00" timeLoss="46.08" rerouteNo="0" devices="tripinfo_gsndj_s4__2.0" vType="car_1" speedFactor="1.01" vaporized=""/>
    <tripinfo id="gsndj_n7__2.5" depart="134.00" departLane="gsndj_n7_0" departPos="7.10" departSpeed="0.00" departDelay="0.02" arrival="225.00" arrivalLane="gsndj_n6_2" arrivalPos="716.25" arrivalSpeed="29.15" duration="91.00" routeLength="1444.00" waitingTime="18.00" waitingCount="1" stopTime="0.00" timeLoss="43.06" rerouteNo="0" devices="tripinfo_gsndj_n7__2.5" vType="car_1" speedFactor="1.09" vaporized=""/>
    <tripinfo id="gsndj_s4__1.13" depart="110.00" departLane="gsndj_s4_1" departPos="5.10" departSpeed="0.00" departDelay="0.56" arrival="226.00" arrivalLane="gsndj_s5_0" arrivalPos="701.75" arrivalSpeed="24.28" duration="116.00" routeLength="1432.04" waitingTime="35.00" waitingCount="1" stopTime="0.00" timeLoss="56.96" rerouteNo="0" devices="tripinfo_gsndj_s4__1.13" vType="car_2" speedFactor="0.89" vaporized=""/>
    <tripinfo id="gsndj_n7__2.2" depart="126.00" departLane="gsndj_n7_1" departPos="7.10" departSpeed="0.00" departDelay="0.81" arrival="226.00" arrivalLane="gsndj_n6_1" arrivalPos="716.25" arrivalSpeed="24.05" duration="100.00" routeLength="1444.00" waitingTime="20.00" waitingCount="1" stopTime="0.00" timeLoss="40.28" rerouteNo="0" devices="tripinfo_gsndj_n7__2.2" vType="car_1" speedFactor="0.87" vaporized=""/>
    <tripinfo id="gsndj_s4__2.6" depart="138.00" departLane="gsndj_s4_2" departPos="7.10" departSpeed="0.00" departDelay="1.26" arrival="226.00" arrivalLane="gsndj_s5_2" arrivalPos="701.75" arrivalSpeed="30.16" duration="88.00" routeLength="1430.04" waitingTime="15.00" waitingCount="1" stopTime="0.00" timeLoss="40.34" rerouteNo="0" devices="tripinfo_gsndj_s4__2.6" vType="car_1" speedFactor="1.10" vaporized=""/>
    <tripinfo id="gsndj_s4__2.1" depart="130.00" departLane="gsndj_s4_0" departPos="7.10" departSpeed="0.00" departDelay="0.42" arrival="227.00" arrivalLane="gsndj_s5_0" arrivalPos="701.75" arrivalSpeed="24.14" duration="97.00" routeLength="1430.04" waitingTime="18.00" waitingCount="1" stopTime="0.00" timeLoss="43.44" rerouteNo="0" devices="tripinfo_gsndj_s4__2.1" vType="car_1" speedFactor="0.97" vaporized=""/>
    <tripinfo id="gsndj_s4__2.3" depart="135.00" departLane="gsndj_s4_2" departPos="7.10" departSpeed="0.00" departDelay="0.19" arrival="227.00" arrivalLane="gsndj_s5_1" arrivalPos="701.75" arrivalSpeed="28.52" duration="92.00" routeLength="1430.04" waitingTime="18.00" waitingCount="1" stopTime="0.00" timeLoss="44.05" rerouteNo="0" devices="tripinfo_gsndj_s4__2.3" vType="car_1" speedFactor="1.09" vaporized=""/>
    <tripinfo id="gsndj_n7__2.7" depart="138.00" departLane="gsndj_n7_0" departPos="7.10" departSpeed="0.00" departDelay="0.99" arrival="227.00" arrivalLane="gsndj_n6_2" arrivalPos="716.25" arrivalSpeed="29.78" duration="89.00" routeLength="1444.00" waitingTime="11.00" waitingCount="1" stopTime="0.00" timeLoss="40.21" rerouteNo="0" devices="tripinfo_gsndj_n7__2.7" vType="car_1" speedFactor="1.08" vaporized=""/>
    <tripinfo id="gsndj_s4__2.10" depart="156.00" departLane="gsndj_s4_2" departPos="7.10" departSpeed="0.00" departDelay="0.54" arrival="227.00" arrivalLane="gsndj_s5_2" arrivalPos="701.75" arrivalSpeed="32.52" duration="71.00" routeLength="1430.04" waitingTime="2.00" waitingCount="1" stopTime="0.00" timeLoss="27.33" rerouteNo="0" devices="tripinfo_gsndj_s4__2.10" vType="car_1" speedFactor="1.19" vaporized=""/>